9
	Energy:      -7.5917356
  C   -1.78853398565934     -0.86138909352343      0.56303929270747
  C   -2.67679364255938     -2.05433193866246      0.78167562135852
  H   -2.33318842896963      0.06553448416656      0.44196319152207
  H   -2.09544202190289     -2.96698329494002      0.92735023478166
  H   -3.27722134477183     -2.14108661364277     -0.12937390662912
  H   -3.33230436269764     -1.91447207598443      1.64366293900544
  Cl  -3.20201609058387     -0.61826622219684     -2.29928051124399
  Br  -0.59306190832159     -0.54739408643596      2.18237905261522
  H   -1.10237821453383     -0.97986115878064     -0.26456591411728

