15
	Energy:       2.7962116
C         -3.06716        1.78309        0.00258
Br        -1.08670        1.77411        0.09238
C         -3.58882        1.44447        1.39678
C         -3.48245        0.72887       -1.02052
C         -3.49808        3.18212       -0.43054
H         -3.16120        3.94540        0.28047
H         -4.58842        3.25317       -0.49953
H         -3.08675        3.44430       -1.41221
H         -3.24265        0.45844        1.72774
H         -4.68345        1.43331        1.41423
H         -3.25358        2.17629        2.14087
H         -3.13434       -0.27011       -0.73331
H         -3.07082        0.94666       -2.01287
H         -4.57204        0.68383       -1.11744
Cl        -7.80128        1.80437       -0.21274
